 Gaussian 09, Revision A.02,
 Gaussian 09:  EM64M-G09RevA.02 11-Jun-2009

 ---------------------------
 #HF/sto-3g scf=direct nofmm
 ---------------------------

 -----
 water
 -----
 Symbolic Z-matrix:
 Charge =  0 Multiplicity = 1

                         Standard orientation:
 ---------------------------------------------------------------------
 Center     Atomic      Atomic             Coordinates (Angstroms)
 Number     Number       Type             X           Y           Z
 ---------------------------------------------------------------------
      1          1           0       -0.457917    0.355340    4.500000
      2          1           0       -0.936487   -0.202246    4.500000
      3          8           0        0.174301   -0.019137    4.500000
      4          1           0       -0.457917    0.355340    1.500000
      5          1           0       -0.936487   -0.202246    1.500000
      6          8           0        0.174301   -0.019137    1.500000
      7          1           0       -0.457917    0.355340   -1.500000
      8          1           0       -0.936487   -0.202246   -1.500000
      9          8           0        0.174301   -0.019137   -1.500000
     10          1           0       -0.457917    0.355340   -4.500000
     11          1           0       -0.936487   -0.202246   -4.500000
     12          8           0        0.174301   -0.019137   -4.500000
 ---------------------------------------------------------------------

 SCF Done:  E(RHF) =  -298.384780829     A.U. after   12 cycles

 The electronic state is 1-A'.
 Alpha  occ. eigenvalues --  -20.25029 -20.25028 -20.24882 -20.24882  -1.39935
 Alpha  occ. eigenvalues --   -1.39816  -1.39652  -1.39505  -0.59281  -0.59251
 Alpha  occ. eigenvalues --   -0.59089  -0.58941  -0.46066  -0.45875  -0.45580
 Alpha  occ. eigenvalues --   -0.45301  -0.42112  -0.41534  -0.40712  -0.39972
 Alpha virt. eigenvalues --    0.38819   0.39561   0.40509   0.41296   1.10620
 Alpha virt. eigenvalues --    1.12093   1.13931   1.15433

 Mulliken atomic charges:
              1
     1  H    0.285597
     2  H    0.137658
     3  O   -0.423257
     4  H    0.283814
     5  H    0.129951
     6  O   -0.413763
     7  H    0.283814
     8  H    0.129951
     9  O   -0.413763
    10  H    0.285597
    11  H    0.137658
    12  O   -0.423257
 Sum of Mulliken atomic charges =   0.00000

 Dipole moment (field-independent basis, Debye):
    X=             -7.5010    Y=              2.4292    Z=              0.0000  Tot=              7.8846
 Quadrupole moment (field-independent basis, Debye-Ang):
   XX=            -18.7927   YY=            -23.2093   ZZ=            -24.3682
   XY=             -0.1822   XZ=              0.0000   YZ=              0.0000

 Normal termination of Gaussian 09 at Fri Feb 25 16:04:23 2011.
