 Gaussian 09, Revision A.02,
 Gaussian 09:  EM64M-G09RevA.02 11-Jun-2009

 ------------
 #B3LYP/6-31g
 ------------

 -------
 Dooh H2
 -------
 Symbolic Z-matrix:
 Charge =  0 Multiplicity = 1

                         Standard orientation:
 ---------------------------------------------------------------------
 Center     Atomic      Atomic             Coordinates (Angstroms)
 Number     Number       Type             X           Y           Z
 ---------------------------------------------------------------------
      1          6           0       -1.706436   -0.039697   -0.129325
      2          1           0        5.497669    1.986975   -0.051813
      3          1           0        6.421894   -1.762367   -0.047316
      4          1           0       -0.841993    0.344646    0.412115
      5          1           0       -0.838952   -0.331072    0.462963
 ---------------------------------------------------------------------

 SCF Done:  E(RB3LYP) =  -39.8597404246     A.U. after   21 cycles

 The electronic state is 1-A.
 Alpha  occ. eigenvalues --  -10.26104  -0.83917  -0.33580  -0.25209  -0.25018
 Alpha virt. eigenvalues --   -0.21847  -0.13194   0.07086   0.18364   0.48956
 Alpha virt. eigenvalues --    0.54285   0.57642   0.61660   0.72854   0.76489
 Alpha virt. eigenvalues --    0.78164   1.08683

 Mulliken atomic charges:
              1
     1  C   -0.134781
     2  H   -0.001172
     3  H    0.001172
     4  H    0.067399
     5  H    0.067382
 Sum of Mulliken atomic charges =   0.00000

 Dipole moment (field-independent basis, Debye):
    X=              1.7737    Y=              0.0739    Z=              1.1576  Tot=              2.1193
 Quadrupole moment (field-independent basis, Debye-Ang):
   XX=            -14.9907   YY=            -12.1195   ZZ=             -9.2290
   XY=             -0.4119   XZ=             -2.3448   YZ=              0.2003

 Normal termination of Gaussian 09 at Mon Nov 21 15:49:33 2011.
