 Gaussian 09, Revision A.02,
 Gaussian 09:  EM64M-G09RevA.02 11-Jun-2009

 --------------------------
 #HF/6-31g scf=direct nofmm
 --------------------------

 -----
 water
 -----
 Symbolic Z-matrix:
 Charge = -1 Multiplicity = 2

                         Standard orientation:
 ---------------------------------------------------------------------
 Center     Atomic      Atomic             Coordinates (Angstroms)
 Number     Number       Type             X           Y           Z
 ---------------------------------------------------------------------
      1          1           0        0.000000    0.000000    0.367349
      2          1           0        0.000000    0.000000   -0.367349
 ---------------------------------------------------------------------

 SCF Done:  E(UHF) = -0.893402147324     A.U. after    7 cycles

 The electronic state is 2-SGU.
 Alpha  occ. eigenvalues --   -0.26003   0.22681
 Alpha virt. eigenvalues --    1.11255   1.75955
  Beta  occ. eigenvalues --   -0.18525
  Beta virt. eigenvalues --    0.61240   1.14040   1.82487

 Mulliken atomic charges:
              1
     1  H   -0.500000
     2  H   -0.500000
 Sum of Mulliken atomic charges =  -1.00000

 Dipole moment (field-independent basis, Debye):
    X=              0.0000    Y=              0.0000    Z=              0.0000  Tot=              0.0000
 Quadrupole moment (field-independent basis, Debye-Ang):
   XX=             -4.1650   YY=             -4.1650   ZZ=             -7.8389
   XY=              0.0000   XZ=              0.0000   YZ=              0.0000

 Normal termination of Gaussian 09 at Tue Nov  8 11:45:54 2011.
