 Gaussian 09, Revision A.02,
 Gaussian 09:  EM64M-G09RevA.02 11-Jun-2009

 --------------------------
 #HF/6-31g scf=direct nofmm
 --------------------------

 -----
 water
 -----
 Symbolic Z-matrix:
 Charge =  0 Multiplicity = 1

                         Standard orientation:
 ---------------------------------------------------------------------
 Center     Atomic      Atomic             Coordinates (Angstroms)
 Number     Number       Type             X           Y           Z
 ---------------------------------------------------------------------
      1          1           0        0.000000    0.000000    0.367349
      2          1           0        0.000000    0.000000   -0.367349
 ---------------------------------------------------------------------

 SCF Done:  E(RHF) =  -1.12681149634     A.U. after    4 cycles

 The electronic state is 1-SGG.
 Alpha  occ. eigenvalues --   -0.59743
 Alpha virt. eigenvalues --    0.23989   0.77217   1.41147

 Mulliken atomic charges:
              1
     1  H    0.000000
     2  H    0.000000
 Sum of Mulliken atomic charges =   0.00000

 Dipole moment (field-independent basis, Debye):
    X=              0.0000    Y=              0.0000    Z=              0.0000  Tot=              0.0000
 Quadrupole moment (field-independent basis, Debye-Ang):
   XX=             -2.0348   YY=             -2.0348   ZZ=             -1.6160
   XY=              0.0000   XZ=              0.0000   YZ=              0.0000

 Normal termination of Gaussian 09 at Fri Aug 19 18:44:24 2011.
