 Gaussian 09, Revision A.02,
 Gaussian 09:  EM64M-G09RevA.02 11-Jun-2009

 --------------------------------------
 #p NoSymmetry HF/6-31g scf=tight nofmm
 --------------------------------------

 -----
 water
 -----
 Symbolic Z-matrix:
 Charge =  0 Multiplicity = 1

                         Z-Matrix orientation:
 ---------------------------------------------------------------------
 Center     Atomic      Atomic             Coordinates (Angstroms)
 Number     Number       Type             X           Y           Z
 ---------------------------------------------------------------------
      1          1           0        0.303200   -0.494000    0.000000
      2          1           0       -0.303200   -0.908800    0.000000
      3          1           0        0.303200   -0.494000    3.000000
      4          1           0       -0.303200   -0.908800    3.000000
      5          1           0        0.303200   -0.494000    6.000000
      6          1           0       -0.303200   -0.908800    6.000000
      7          1           0        0.303200   -0.494000    9.000000
      8          1           0       -0.303200   -0.908800    9.000000
      9          1           0        0.303200   -0.494000   12.000000
     10          1           0       -0.303200   -0.908800   12.000000
     11          1           0        0.303200   -3.494000    0.000000
     12          1           0       -0.303200   -3.908800    0.000000
     13          1           0        0.303200   -3.494000    3.000000
     14          1           0       -0.303200   -3.908800    3.000000
     15          1           0        0.303200   -3.494000    6.000000
     16          1           0       -0.303200   -3.908800    6.000000
     17          1           0        0.303200   -3.494000    9.000000
     18          1           0       -0.303200   -3.908800    9.000000
     19          1           0        0.303200   -3.494000   12.000000
     20          1           0       -0.303200   -3.908800   12.000000
     21          1           0        0.303200   -6.494000    0.000000
     22          1           0       -0.303200   -6.908800    0.000000
     23          1           0        0.303200   -6.494000    3.000000
     24          1           0       -0.303200   -6.908800    3.000000
     25          1           0        0.303200   -6.494000    6.000000
     26          1           0       -0.303200   -6.908800    6.000000
     27          1           0        0.303200   -6.494000    9.000000
     28          1           0       -0.303200   -6.908800    9.000000
     29          1           0        0.303200   -6.494000   12.000000
     30          1           0       -0.303200   -6.908800   12.000000
     31          1           0        0.303200   -9.494000    0.000000
     32          1           0       -0.303200   -9.908800    0.000000
     33          1           0        0.303200   -9.494000    3.000000
     34          1           0       -0.303200   -9.908800    3.000000
     35          1           0        0.303200   -9.494000    6.000000
     36          1           0       -0.303200   -9.908800    6.000000
     37          1           0        0.303200   -9.494000    9.000000
     38          1           0       -0.303200   -9.908800    9.000000
     39          1           0        0.303200   -9.494000   12.000000
     40          1           0       -0.303200   -9.908800   12.000000
     41          1           0        0.303200  -12.494000    0.000000
     42          1           0       -0.303200  -12.908800    0.000000
     43          1           0        0.303200  -12.494000    3.000000
     44          1           0       -0.303200  -12.908800    3.000000
     45          1           0        0.303200  -12.494000    6.000000
     46          1           0       -0.303200  -12.908800    6.000000
     47          1           0        0.303200  -12.494000    9.000000
     48          1           0       -0.303200  -12.908800    9.000000
     49          1           0        0.303200  -12.494000   12.000000
     50          1           0       -0.303200  -12.908800   12.000000
     51          1           0        0.303200  -15.494000    0.000000
     52          1           0       -0.303200  -15.908800    0.000000
     53          1           0        0.303200  -15.494000    3.000000
     54          1           0       -0.303200  -15.908800    3.000000
     55          1           0        0.303200  -15.494000    6.000000
     56          1           0       -0.303200  -15.908800    6.000000
     57          1           0        0.303200  -15.494000    9.000000
     58          1           0       -0.303200  -15.908800    9.000000
     59          1           0        0.303200  -15.494000   12.000000
     60          1           0       -0.303200  -15.908800   12.000000
     61          1           0        0.303200  -18.494000    0.000000
     62          1           0       -0.303200  -18.908800    0.000000
     63          1           0        0.303200  -18.494000    3.000000
     64          1           0       -0.303200  -18.908800    3.000000
     65          1           0        0.303200  -18.494000    6.000000
     66          1           0       -0.303200  -18.908800    6.000000
     67          1           0        0.303200  -18.494000    9.000000
     68          1           0       -0.303200  -18.908800    9.000000
     69          1           0        0.303200  -18.494000   12.000000
     70          1           0       -0.303200  -18.908800   12.000000
     71          1           0        0.303200  -21.494000    0.000000
     72          1           0       -0.303200  -21.908800    0.000000
     73          1           0        0.303200  -21.494000    3.000000
     74          1           0       -0.303200  -21.908800    3.000000
     75          1           0        0.303200  -21.494000    6.000000
     76          1           0       -0.303200  -21.908800    6.000000
     77          1           0        0.303200  -21.494000    9.000000
     78          1           0       -0.303200  -21.908800    9.000000
     79          1           0        0.303200  -21.494000   12.000000
     80          1           0       -0.303200  -21.908800   12.000000
     81          1           0        0.303200  -24.494000    0.000000
     82          1           0       -0.303200  -24.908800    0.000000
     83          1           0        0.303200  -24.494000    3.000000
     84          1           0       -0.303200  -24.908800    3.000000
     85          1           0        0.303200  -24.494000    6.000000
     86          1           0       -0.303200  -24.908800    6.000000
     87          1           0        0.303200  -24.494000    9.000000
     88          1           0       -0.303200  -24.908800    9.000000
     89          1           0        0.303200  -24.494000   12.000000
     90          1           0       -0.303200  -24.908800   12.000000
     91          1           0        0.303200  -27.494000    0.000000
     92          1           0       -0.303200  -27.908800    0.000000
     93          1           0        0.303200  -27.494000    3.000000
     94          1           0       -0.303200  -27.908800    3.000000
     95          1           0        0.303200  -27.494000    6.000000
     96          1           0       -0.303200  -27.908800    6.000000
     97          1           0        0.303200  -27.494000    9.000000
     98          1           0       -0.303200  -27.908800    9.000000
     99          1           0        0.303200  -27.494000   12.000000
    100          1           0       -0.303200  -27.908800   12.000000
    101          1           0        0.303200  -30.494000    0.000000
    102          1           0       -0.303200  -30.908800    0.000000
    103          1           0        0.303200  -30.494000    3.000000
    104          1           0       -0.303200  -30.908800    3.000000
    105          1           0        0.303200  -30.494000    6.000000
    106          1           0       -0.303200  -30.908800    6.000000
    107          1           0        0.303200  -30.494000    9.000000
    108          1           0       -0.303200  -30.908800    9.000000
    109          1           0        0.303200  -30.494000   12.000000
    110          1           0       -0.303200  -30.908800   12.000000
    111          1           0        0.303200  -33.494000    0.000000
    112          1           0       -0.303200  -33.908800    0.000000
    113          1           0        0.303200  -33.494000    3.000000
    114          1           0       -0.303200  -33.908800    3.000000
    115          1           0        0.303200  -33.494000    6.000000
    116          1           0       -0.303200  -33.908800    6.000000
    117          1           0        0.303200  -33.494000    9.000000
    118          1           0       -0.303200  -33.908800    9.000000
    119          1           0        0.303200  -33.494000   12.000000
    120          1           0       -0.303200  -33.908800   12.000000
    121          1           0        0.303200  -36.494000    0.000000
    122          1           0       -0.303200  -36.908800    0.000000
    123          1           0        0.303200  -36.494000    3.000000
    124          1           0       -0.303200  -36.908800    3.000000
    125          1           0        0.303200  -36.494000    6.000000
    126          1           0       -0.303200  -36.908800    6.000000
    127          1           0        0.303200  -36.494000    9.000000
    128          1           0       -0.303200  -36.908800    9.000000
    129          1           0        0.303200  -36.494000   12.000000
    130          1           0       -0.303200  -36.908800   12.000000
    131          1           0        0.303200  -39.494000    0.000000
    132          1           0       -0.303200  -39.908800    0.000000
    133          1           0        0.303200  -39.494000    3.000000
    134          1           0       -0.303200  -39.908800    3.000000
    135          1           0        0.303200  -39.494000    6.000000
    136          1           0       -0.303200  -39.908800    6.000000
    137          1           0        0.303200  -39.494000    9.000000
    138          1           0       -0.303200  -39.908800    9.000000
    139          1           0        0.303200  -39.494000   12.000000
    140          1           0       -0.303200  -39.908800   12.000000
    141          1           0        0.303200  -42.494000    0.000000
    142          1           0       -0.303200  -42.908800    0.000000
    143          1           0        0.303200  -42.494000    3.000000
    144          1           0       -0.303200  -42.908800    3.000000
    145          1           0        0.303200  -42.494000    6.000000
    146          1           0       -0.303200  -42.908800    6.000000
    147          1           0        0.303200  -42.494000    9.000000
    148          1           0       -0.303200  -42.908800    9.000000
    149          1           0        0.303200  -42.494000   12.000000
    150          1           0       -0.303200  -42.908800   12.000000
 ---------------------------------------------------------------------

 SCF Done:  E(RHF) =  -84.4529515237     A.U. after    6 cycles

 Alpha  occ. eigenvalues --   -0.62737  -0.62641  -0.62476  -0.62248  -0.62161
 Alpha  occ. eigenvalues --   -0.62066  -0.61965  -0.61905  -0.61683  -0.61635
 Alpha  occ. eigenvalues --   -0.61407  -0.61296  -0.61270  -0.61205  -0.61086
 Alpha  occ. eigenvalues --   -0.61050  -0.60882  -0.60836  -0.60731  -0.60571
 Alpha  occ. eigenvalues --   -0.60486  -0.60369  -0.60354  -0.60283  -0.60262
 Alpha  occ. eigenvalues --   -0.60134  -0.60096  -0.59968  -0.59930  -0.59921
 Alpha  occ. eigenvalues --   -0.59729  -0.59676  -0.59632  -0.59589  -0.59559
 Alpha  occ. eigenvalues --   -0.59549  -0.59406  -0.59399  -0.59381  -0.59233
 Alpha  occ. eigenvalues --   -0.59209  -0.59190  -0.59122  -0.59055  -0.58964
 Alpha  occ. eigenvalues --   -0.58913  -0.58911  -0.58827  -0.58776  -0.58709
 Alpha  occ. eigenvalues --   -0.58680  -0.58645  -0.58485  -0.58440  -0.58366
 Alpha  occ. eigenvalues --   -0.58357  -0.58310  -0.58180  -0.58033  -0.58012
 Alpha  occ. eigenvalues --   -0.57923  -0.57728  -0.57695  -0.57687  -0.57603
 Alpha  occ. eigenvalues --   -0.57396  -0.57362  -0.57152  -0.57050  -0.56967
 Alpha  occ. eigenvalues --   -0.56848  -0.56771  -0.56537  -0.56359  -0.56244
 Alpha virt. eigenvalues --    0.20277   0.20343   0.20452   0.20585   0.20653
 Alpha virt. eigenvalues --    0.20734   0.20736   0.20872   0.20890   0.21030
 Alpha virt. eigenvalues --    0.21044   0.21170   0.21177   0.21268   0.21269

 Mulliken atomic charges:
              1
     1  H   -0.003617
     2  H    0.003610
     3  H   -0.004072
     4  H    0.004071
     5  H   -0.004144
     6  H    0.004141
     7  H   -0.004072
     8  H    0.004071
     9  H   -0.003617
    10  H    0.003610
    11  H   -0.000362
    12  H    0.000361
    13  H   -0.000432
    14  H    0.000436
    15  H   -0.000454
    16  H    0.000457
    17  H   -0.000432
    18  H    0.000436
    19  H   -0.000362
    20  H    0.000361
    21  H   -0.000112
    22  H    0.000110
    23  H   -0.000129
    24  H    0.000132
    25  H   -0.000136
    26  H    0.000139
    27  H   -0.000129
    28  H    0.000132
    29  H   -0.000112
    30  H    0.000110
    31  H   -0.000050
    32  H    0.000047
    33  H   -0.000053
    34  H    0.000056
    35  H   -0.000056
    36  H    0.000058
    37  H   -0.000053
    38  H    0.000056
    39  H   -0.000050
    40  H    0.000047
    41  H   -0.000026
    42  H    0.000023
    43  H   -0.000025
    44  H    0.000028
    45  H   -0.000027
    46  H    0.000028
    47  H   -0.000025
    48  H    0.000028
    49  H   -0.000026
    50  H    0.000023
    51  H   -0.000014
    52  H    0.000011
    53  H   -0.000012
    54  H    0.000015
    55  H   -0.000013
    56  H    0.000014
    57  H   -0.000012
    58  H    0.000015
    59  H   -0.000014
    60  H    0.000011
    61  H   -0.000007
    62  H    0.000004
    63  H   -0.000004
    64  H    0.000007
    65  H   -0.000005
    66  H    0.000007
    67  H   -0.000004
    68  H    0.000007
    69  H   -0.000007
    70  H    0.000004
    71  H   -0.000002
    72  H   -0.000002
    73  H    0.000001
    74  H    0.000001
    75  H    0.000001
    76  H    0.000001
    77  H    0.000001
    78  H    0.000001
    79  H   -0.000002
    80  H   -0.000002
    81  H    0.000004
    82  H   -0.000007
    83  H    0.000007
    84  H   -0.000004
    85  H    0.000007
    86  H   -0.000005
    87  H    0.000007
    88  H   -0.000004
    89  H    0.000004
    90  H   -0.000007
    91  H    0.000011
    92  H   -0.000014
    93  H    0.000015
    94  H   -0.000012
    95  H    0.000014
    96  H   -0.000013
    97  H    0.000015
    98  H   -0.000012
    99  H    0.000011
   100  H   -0.000014
   101  H    0.000023
   102  H   -0.000026
   103  H    0.000028
   104  H   -0.000025
   105  H    0.000028
   106  H   -0.000027
   107  H    0.000028
   108  H   -0.000025
   109  H    0.000023
   110  H   -0.000026
   111  H    0.000047
   112  H   -0.000050
   113  H    0.000056
   114  H   -0.000053
   115  H    0.000058
   116  H   -0.000056
   117  H    0.000056
   118  H   -0.000053
   119  H    0.000047
   120  H   -0.000050
   121  H    0.000110
   122  H   -0.000112
   123  H    0.000132
   124  H   -0.000129
   125  H    0.000139
   126  H   -0.000136
   127  H    0.000132
   128  H   -0.000129
   129  H    0.000110
   130  H   -0.000112
   131  H    0.000361
   132  H   -0.000362
   133  H    0.000436
   134  H   -0.000432
   135  H    0.000457
   136  H   -0.000454
   137  H    0.000436
   138  H   -0.000432
   139  H    0.000361
   140  H   -0.000362
   141  H    0.003610
   142  H   -0.003617
   143  H    0.004071
   144  H   -0.004072
   145  H    0.004141
   146  H   -0.004144
   147  H    0.004071
   148  H   -0.004072
   149  H    0.003610
   150  H   -0.003617
 Sum of Mulliken atomic charges =   0.00000

 Dipole moment (field-independent basis, Debye):
    X=              0.0000    Y=              0.0000    Z=              0.0000  Tot=              0.0000
 Quadrupole moment (field-independent basis, Debye-Ang):
   XX=           -130.8871   YY=           -147.3662   ZZ=           -153.9514
   XY=             12.3755   XZ=              0.0000   YZ=              0.0000

 Normal termination of Gaussian 09 at Fri Aug 19 18:45:41 2011.
