 Gaussian 09, Revision A.02,
 Gaussian 09:  EM64M-G09RevA.02 11-Jun-2009

 -----------
 # RHF/6-31G
 -----------

 ----------
 Dooh ALA10
 ----------
 Symbolic Z-matrix:
 Charge =  0 Multiplicity = 1

                         Standard orientation:
 ---------------------------------------------------------------------
 Center     Atomic      Atomic             Coordinates (Angstroms)
 Number     Number       Type             X           Y           Z
 ---------------------------------------------------------------------
      1          1           0      -20.694777    0.243921    0.162968
      2          6           0      -19.797595    0.557778   -0.369810
      3          1           0      -19.621213    1.616825   -0.193327
      4          1           0      -19.921728    0.373413   -1.435032
      5          6           0      -18.620308   -0.237215    0.144985
      6          8           0      -18.776921   -1.056245    1.040401
      7          7           0      -17.441559    0.010293   -0.421144
      8          1           0      -17.382506    0.726348   -1.129658
      9          6           0      -16.180376   -0.625754   -0.034093
     10          1           0      -16.196985   -0.833600    1.036796
     11          6           0      -16.046205   -1.953163   -0.795006
     12          1           0      -16.026777   -1.765632   -1.870299
     13          1           0      -15.125352   -2.458747   -0.502697
     14          1           0      -16.891521   -2.602667   -0.559604
     15          6           0      -14.985839    0.299388   -0.329334
     16          8           0      -15.101412    1.238850   -1.116512
     17          7           0      -13.830189    0.013299    0.275162
     18          1           0      -13.783403   -0.790889    0.885246
     19          6           0      -12.571566    0.726359    0.051886
     20          1           0      -12.518750    1.056970   -0.987639
     21          6           0      -12.538316    1.959183    0.968398
     22          1           0      -12.591505    1.649789    2.013811
     23          1           0      -11.615786    2.517736    0.808654
     24          1           0      -13.384331    2.611795    0.744235
     25          6           0      -11.370147   -0.194237    0.332656
     26          8           0      -11.501590   -1.188844    1.044952
     27          7           0      -10.196368    0.152006   -0.202524
     28          1           0      -10.141737    0.992058   -0.761007
     29          6           0       -8.934011   -0.549428    0.030458
     30          1           0       -8.899112   -0.898940    1.064328
     31          6           0       -8.860491   -1.761817   -0.910646
     32          1           0       -8.899134   -1.431235   -1.949058
     33          1           0       -7.930567   -2.307019   -0.744521
     34          1           0       -9.697543   -2.433939   -0.715495
     35          6           0       -7.741412    0.395212   -0.208809
     36          8           0       -7.871750    1.394107   -0.914903
     37          7           0       -6.576214    0.061044    0.350629
     38          1           0       -6.523854   -0.777905    0.912075
     39          6           0       -5.312045    0.762992    0.129021
     40          1           0       -5.259658    1.095349   -0.908840
     41          6           0       -5.257031    1.991853    1.050490
     42          1           0       -5.316257    1.677554    2.094687
     43          1           0       -4.323505    2.532728    0.893497
     44          1           0       -6.091070    2.659675    0.829679
     45          6           0       -4.123777   -0.175537    0.405989
     46          8           0       -4.257554   -1.135513    1.163686
     47          7           0       -2.961231    0.117324   -0.181250
     48          1           0       -2.907589    0.923999   -0.788509
     49          6           0       -1.701587   -0.585521    0.065135
     50          1           0       -1.632718   -0.846753    1.122706
     51          6           0       -1.680353   -1.873656   -0.772091
     52          1           0       -1.757049   -1.631151   -1.833665
     53          1           0       -0.750812   -2.416155   -0.596880
     54          1           0       -2.515604   -2.515510   -0.489232
     55          6           0       -0.505499    0.312473   -0.300990
     56          8           0       -0.638647    1.216301   -1.124423
     57          7           0        0.663556    0.041783    0.284189
     58          1           0        0.715198   -0.715019    0.950379
     59          6           0        1.931839    0.696607   -0.040774
     60          1           0        1.985522    0.864976   -1.118390
     61          6           0        1.995245    2.050939    0.681476
     62          1           0        1.933460    1.900739    1.761380
     63          1           0        2.933313    2.554152    0.444966
     64          1           0        1.168353    2.684013    0.358929
     65          6           0        3.116711   -0.193362    0.377895
     66          8           0        2.977960   -1.028280    1.271746
     67          7           0        4.282071    0.006453   -0.240205
     68          1           0        4.340405    0.712058   -0.961380
     69          6           0        5.542902   -0.644935    0.118375
     70          1           0        5.608544   -0.732192    1.204723
     71          6           0        5.570936   -2.052952   -0.497543
     72          1           0        5.498339   -1.985727   -1.584497
     73          1           0        6.501295   -2.555917   -0.232580
     74          1           0        4.735504   -2.642590   -0.116861
     75          6           0        6.737887    0.188411   -0.380341
     76          8           0        6.593346    0.982142   -1.309957
     77          7           0        7.916657   -0.012974    0.213352
     78          1           0        7.980083   -0.690773    0.959552
     79          6           0        9.179277    0.595863   -0.209663
     80          1           0        9.211234    0.640502   -1.299476
     81          6           0        9.255706    2.024088    0.351255
     82          1           0        9.219244    2.000766    1.441580
     83          1           0       10.185457    2.499375    0.034322
     84          1           0        8.419378    2.615893   -0.023578
     85          6           0       10.372006   -0.247731    0.278968
     86          8           0       10.230759   -1.045765    1.204995
     87          7           0       11.547312   -0.047411   -0.321473
     88          1           0       11.608722    0.640096   -1.058927
     89          6           0       12.811155   -0.664483    0.086018
     90          1           0       12.841822   -0.737423    1.174780
     91          6           0       12.890530   -2.078504   -0.509774
     92          1           0       12.857870   -2.028811   -1.599296
     93          1           0       13.817248   -2.563156   -0.199452
     94          1           0       12.051405   -2.677955   -0.153403
     95          6           0       14.002226    0.197391   -0.375124
     96          8           0       13.848278    1.062297   -1.237599
     97          7           0       15.189805   -0.052646    0.181136
     98          1           0       15.265461   -0.802565    0.854103
     99          6           0       16.444635    0.599098   -0.194548
    100          1           0       16.445714    0.784792   -1.270836
    101          6           0       16.540138    1.946414    0.539726
    102          1           0       16.541861    1.785123    1.618777
    103          1           0       17.453326    2.466827    0.252915
    104          1           0       15.686913    2.573729    0.274138
    105          6           0       17.646247   -0.308167    0.138398
    106          8           0       17.495967   -1.300405    0.849967
    107          7           0       18.839004    0.044184   -0.361039
    108          1           0       18.884749    0.874192   -0.931107
    109          6           0       20.076477   -0.693774   -0.115375
    110          1           0       20.342916   -0.625210    0.941531
    111          1           0       19.936468   -1.746837   -0.367504
    112          1           0       20.889508   -0.286588   -0.717876
 ---------------------------------------------------------------------

 SCF Done:  E(RHF) =  -2704.30662478     A.U. after   15 cycles

 The electronic state is 1-A.
 Alpha  occ. eigenvalues --  -20.55531 -20.55440 -20.55198 -20.55064 -20.54911
 Alpha  occ. eigenvalues --  -20.54845 -20.54699 -20.54518 -20.54161 -20.53502
 Alpha  occ. eigenvalues --  -20.51311 -15.61978 -15.61540 -15.61315 -15.61220
 Alpha  occ. eigenvalues --  -15.61133 -15.61026 -15.60932 -15.60711 -15.60398
 Alpha  occ. eigenvalues --  -15.59836 -15.58167 -11.39502 -11.39443 -11.39262
 Alpha  occ. eigenvalues --  -11.39138 -11.39001 -11.38907 -11.38763 -11.38571
 Alpha  occ. eigenvalues --  -11.38215 -11.37538 -11.35527 -11.32064 -11.31722
 Alpha  occ. eigenvalues --  -11.31558 -11.31434 -11.31328 -11.31206 -11.31043
 Alpha  occ. eigenvalues --  -11.30822 -11.30426 -11.29441 -11.28849 -11.25031
 Alpha  occ. eigenvalues --  -11.24348 -11.24221 -11.24049 -11.23943 -11.23837
 Alpha  occ. eigenvalues --  -11.23741 -11.23567 -11.23290 -11.22947 -11.22643
 Alpha  occ. eigenvalues --   -1.43100  -1.42776  -1.42567  -1.42351  -1.42156
 Alpha  occ. eigenvalues --   -1.41959  -1.41737  -1.41528  -1.41236  -1.40581
 Alpha  occ. eigenvalues --   -1.38897  -1.26848  -1.26610  -1.26475  -1.26389
 Alpha  occ. eigenvalues --   -1.26382  -1.26291  -1.26162  -1.25987  -1.25669
 Alpha  occ. eigenvalues --   -1.25105  -1.23775  -1.10370  -1.09761  -1.09026
 Alpha  occ. eigenvalues --   -1.08149  -1.07162  -1.06101  -1.05036  -1.04058
 Alpha  occ. eigenvalues --   -1.03260  -1.02630  -0.98891  -0.98633  -0.93607
 Alpha  occ. eigenvalues --   -0.93288  -0.92975  -0.92590  -0.92099  -0.91454
 Alpha  occ. eigenvalues --   -0.90620  -0.89578  -0.88382  -0.87129  -0.83712
 Alpha  occ. eigenvalues --   -0.82629  -0.81761  -0.81207  -0.80864  -0.80576
 Alpha  occ. eigenvalues --   -0.80339  -0.80117  -0.79906  -0.79495  -0.78860
 Alpha  occ. eigenvalues --   -0.78378  -0.77871  -0.76490  -0.74735  -0.72805
 Alpha  occ. eigenvalues --   -0.70912  -0.69806  -0.69428  -0.69258  -0.69007
 Alpha  occ. eigenvalues --   -0.68517  -0.68081  -0.67939  -0.67496  -0.67242
 Alpha  occ. eigenvalues --   -0.66971  -0.66532  -0.65964  -0.65830  -0.65657
 Alpha  occ. eigenvalues --   -0.65192  -0.65019  -0.64495  -0.63837  -0.63767
 Alpha  occ. eigenvalues --   -0.63228  -0.63136  -0.62678  -0.62584  -0.62262
 Alpha  occ. eigenvalues --   -0.62030  -0.61842  -0.61504  -0.61367  -0.61077
 Alpha  occ. eigenvalues --   -0.60841  -0.60465  -0.60161  -0.60080  -0.59791
 Alpha  occ. eigenvalues --   -0.59637  -0.59355  -0.58997  -0.58060  -0.57718
 Alpha  occ. eigenvalues --   -0.57287  -0.56624  -0.56278  -0.56115  -0.55968
 Alpha  occ. eigenvalues --   -0.55829  -0.55707  -0.55586  -0.55458  -0.55412
 Alpha  occ. eigenvalues --   -0.55142  -0.54977  -0.54667  -0.54476  -0.54340
 Alpha  occ. eigenvalues --   -0.54258  -0.54223  -0.54080  -0.53960  -0.53824
 Alpha  occ. eigenvalues --   -0.53469  -0.53134  -0.53012  -0.52830  -0.52566
 Alpha  occ. eigenvalues --   -0.52192  -0.51780  -0.51665  -0.51230  -0.50852
 Alpha  occ. eigenvalues --   -0.50562  -0.50149  -0.48864  -0.44529  -0.44352
 Alpha  occ. eigenvalues --   -0.44159  -0.44042  -0.43925  -0.43828  -0.43702
 Alpha  occ. eigenvalues --   -0.43493  -0.43135  -0.42404  -0.41763  -0.41283
 Alpha  occ. eigenvalues --   -0.40998  -0.40787  -0.40566  -0.40532  -0.40329
 Alpha  occ. eigenvalues --   -0.40105  -0.39891  -0.39642  -0.39134  -0.37762
 Alpha virt. eigenvalues --    0.15242   0.15467   0.15763   0.16087   0.16435
 Alpha virt. eigenvalues --    0.16803   0.17204   0.17656   0.18146   0.18606
 Alpha virt. eigenvalues --    0.18673   0.20432   0.21187   0.21501   0.21672

 Mulliken atomic charges:
              1
     1  H    0.213742
     2  C   -0.536191
     3  H    0.185903
     4  H    0.181631
     5  C    0.734505
     6  O   -0.625932
     7  N   -0.875257
     8  H    0.411414
     9  C   -0.015826
    10  H    0.232338
    11  C   -0.430722
    12  H    0.168789
    13  H    0.157079
    14  H    0.204995
    15  C    0.804058
    16  O   -0.651426
    17  N   -0.905805
    18  H    0.419767
    19  C   -0.014581
    20  H    0.231689
    21  C   -0.431512
    22  H    0.175426
    23  H    0.159357
    24  H    0.205856
    25  C    0.804880
    26  O   -0.648532
    27  N   -0.908703
    28  H    0.420281
    29  C   -0.010067
    30  H    0.230458
    31  C   -0.434125
    32  H    0.176020
    33  H    0.160142
    34  H    0.208826
    35  C    0.803324
    36  O   -0.648457
    37  N   -0.908691
    38  H    0.421056
    39  C   -0.007890
    40  H    0.228225
    41  C   -0.434196
    42  H    0.177558
    43  H    0.159991
    44  H    0.209156
    45  C    0.802070
    46  O   -0.648341
    47  N   -0.909113
    48  H    0.420889
    49  C   -0.006493
    50  H    0.227843
    51  C   -0.435573
    52  H    0.177780
    53  H    0.160611
    54  H    0.210115
    55  C    0.801249
    56  O   -0.647914
    57  N   -0.909133
    58  H    0.420949
    59  C   -0.005303
    60  H    0.227204
    61  C   -0.436119
    62  H    0.177618
    63  H    0.160862
    64  H    0.210677
    65  C    0.801037
    66  O   -0.648753
    67  N   -0.909245
    68  H    0.421543
    69  C   -0.006658
    70  H    0.228177
    71  C   -0.436127
    72  H    0.176581
    73  H    0.161875
    74  H    0.210961
    75  C    0.801985
    76  O   -0.649018
    77  N   -0.909057
    78  H    0.421878
    79  C   -0.009114
    80  H    0.229683
    81  C   -0.436193
    82  H    0.175615
    83  H    0.162217
    84  H    0.210492
    85  C    0.802978
    86  O   -0.647898
    87  N   -0.908271
    88  H    0.421587
    89  C   -0.012745
    90  H    0.232459
    91  C   -0.435575
    92  H    0.174049
    93  H    0.165216
    94  H    0.209809
    95  C    0.804923
    96  O   -0.650298
    97  N   -0.906160
    98  H    0.422873
    99  C   -0.019421
   100  H    0.230342
   101  C   -0.429592
   102  H    0.176951
   103  H    0.147451
   104  H    0.209539
   105  C    0.797155
   106  O   -0.633838
   107  N   -0.896274
   108  H    0.385213
   109  C   -0.199941
   110  H    0.191085
   111  H    0.200926
   112  H    0.171147
 Sum of Mulliken atomic charges =   0.00000

 Dipole moment (field-independent basis, Debye):
    X=             19.4640    Y=              2.9273    Z=             -2.8615  Tot=             19.8898
 Quadrupole moment (field-independent basis, Debye-Ang):
   XX=           -253.9476   YY=           -347.3964   ZZ=           -354.9719
   XY=              6.4866   XZ=             11.4938   YZ=             29.9456

 Normal termination of Gaussian 09 at Fri Oct 29 14:34:34 2010.
