 Gaussian 09, Revision A.02,
 Gaussian 09:  EM64M-G09RevA.02 11-Jun-2009

 --------------------------------------------
 # scf=tight blyp/3-21g opt geom=connectivity
 --------------------------------------------

 -------------------
 Title Card Required
 -------------------
 Symbolic Z-matrix:
 Charge =  0 Multiplicity = 1

 SCF Done:  E(RB-LYP) =  -230.857779485     A.U. after   13 cycles
 SCF Done:  E(RB-LYP) =  -230.858892082     A.U. after   13 cycles
 SCF Done:  E(RB-LYP) =  -230.858902609     A.U. after   12 cycles
 Optimization completed.
    -- Stationary point found.

                         Standard orientation:
 ---------------------------------------------------------------------
 Center     Atomic      Atomic             Coordinates (Angstroms)
 Number     Number       Type             X           Y           Z
 ---------------------------------------------------------------------
      1          6           0       -0.772400    1.177167    0.000002
      2          6           0       -1.405756   -0.080326   -0.000017
      3          6           0       -0.633368   -1.257454    0.000018
      4          6           0        0.772457   -1.177130   -0.000003
      5          6           0        1.405759    0.080259   -0.000012
      6          6           0        0.633307    1.257484    0.000011
      7          1           0       -1.371058    2.089772   -0.000003
      8          1           0       -2.495442   -0.142322   -0.000015
      9          1           0       -1.124318   -2.232246    0.000012
     10          1           0        1.370981   -2.089822    0.000001
     11          1           0        2.495437    0.142409   -0.000016
     12          1           0        1.124400    2.232204    0.000021
 ---------------------------------------------------------------------

 The electronic state is 1-A.
 Alpha  occ. eigenvalues --   -9.86376  -9.86301  -9.86300  -9.86164  -9.86164
 Alpha  occ. eigenvalues --   -9.86047  -0.76121  -0.66147  -0.66144  -0.53280
 Alpha  occ. eigenvalues --   -0.53278  -0.46246  -0.40164  -0.39141  -0.36843
 Alpha  occ. eigenvalues --   -0.36839  -0.31206  -0.29494  -0.29493  -0.21198
 Alpha  occ. eigenvalues --   -0.21194
 Alpha virt. eigenvalues --   -0.01752  -0.01750   0.08080   0.12402   0.13540
 Alpha virt. eigenvalues --    0.13542   0.17459   0.17461   0.17974   0.28858
 Alpha virt. eigenvalues --    0.28864   0.30106   0.30109   0.51681   0.52424

 Mulliken atomic charges:
              1
     1  C   -0.162951
     2  C   -0.162937
     3  C   -0.162838
     4  C   -0.162951
     5  C   -0.162937
     6  C   -0.162838
     7  H    0.162914
     8  H    0.162915
     9  H    0.162897
    10  H    0.162914
    11  H    0.162915
    12  H    0.162897
 Sum of Mulliken atomic charges =   0.00000

 Dipole moment (field-independent basis, Debye):
    X=              0.0000    Y=              0.0000    Z=              0.0000  Tot=              0.0000
 Quadrupole moment (field-independent basis, Debye-Ang):
   XX=            -31.4097   YY=            -31.4109   ZZ=            -39.7555
   XY=             -0.0002   XZ=              0.0000   YZ=              0.0000

 Normal termination of Gaussian 09 at Thu Dec  1 11:18:53 2011.
