 Gaussian 09, Revision A.02,
 Gaussian 09:  EM64M-G09RevA.02 11-Jun-2009

 ---------------------------------
 # hf/sto-3g opt geom=connectivity
 ---------------------------------

 -------------------
 Title Card Required
 -------------------
 Symbolic Z-matrix:
 Charge =  0 Multiplicity = 1

 SCF Done:  E(RHF) =  -227.889409904     A.U. after   10 cycles
 SCF Done:  E(RHF) =  -227.891084863     A.U. after   11 cycles
 SCF Done:  E(RHF) =  -227.891360303     A.U. after   11 cycles
 Optimization completed.
    -- Stationary point found.

                         Standard orientation:
 ---------------------------------------------------------------------
 Center     Atomic      Atomic             Coordinates (Angstroms)
 Number     Number       Type             X           Y           Z
 ---------------------------------------------------------------------
      1          6           0        0.500491    1.293384    0.000001
      2          6           0        1.370376    0.213148   -0.000108
      3          6           0        0.869864   -1.080127    0.000054
      4          6           0       -0.500592   -1.293343   -0.000022
      5          6           0       -1.370359   -0.213256   -0.000054
      6          6           0       -0.869779    1.080196    0.000076
      7          1           0        0.891281    2.302961    0.000011
      8          1           0        2.440071    0.379638    0.000068
      9          1           0        1.548790   -1.923351    0.000171
     10          1           0       -0.891253   -2.302972    0.000090
     11          1           0       -2.440077   -0.379614   -0.000119
     12          1           0       -1.548818    1.923328    0.000100
 ---------------------------------------------------------------------

 The electronic state is 1-A.
 Alpha  occ. eigenvalues --  -11.02925 -11.02925 -11.02924 -11.02885 -11.02885
 Alpha  occ. eigenvalues --  -11.02868  -1.09563  -0.95812  -0.95812  -0.76899
 Alpha  occ. eigenvalues --   -0.76899  -0.66571  -0.59369  -0.55724  -0.53608
 Alpha  occ. eigenvalues --   -0.53608  -0.46087  -0.43378  -0.43378  -0.28263
 Alpha  occ. eigenvalues --   -0.28263
 Alpha virt. eigenvalues --    0.27074   0.27074   0.50907   0.57922   0.64992
 Alpha virt. eigenvalues --    0.64992   0.72908   0.74354   0.74354   0.89013
 Alpha virt. eigenvalues --    0.89013   0.90623   0.90623   1.09933   1.16382

 Mulliken atomic charges:
              1
     1  C   -0.062924
     2  C   -0.062925
     3  C   -0.062924
     4  C   -0.062925
     5  C   -0.062924
     6  C   -0.062925
     7  H    0.062924
     8  H    0.062925
     9  H    0.062924
    10  H    0.062924
    11  H    0.062925
    12  H    0.062925
 Sum of Mulliken atomic charges =   0.00000

 Dipole moment (field-independent basis, Debye):
    X=              0.0000    Y=              0.0000    Z=              0.0001  Tot=              0.0001
 Quadrupole moment (field-independent basis, Debye-Ang):
   XX=            -31.2294   YY=            -31.2296   ZZ=            -35.0715
   XY=              0.0000   XZ=              0.0003   YZ=             -0.0001

 Normal termination of Gaussian 09 at Thu Nov  4 12:45:33 2010.
