 Gaussian 09, Revision A.02,
 Gaussian 09:  EM64M-G09RevA.02 11-Jun-2009

 -----------------------------------
 #hf/6-31g* geom=connectivity nosymm
 -----------------------------------

 ----------------------------------------------------------------
 Water16 modeled by HyperChem and optimized by amber94 force feld
 ----------------------------------------------------------------
 Symbolic Z-matrix:
 Charge =  0 Multiplicity = 1

                          Input orientation:
 ---------------------------------------------------------------------
 Center     Atomic      Atomic             Coordinates (Angstroms)
 Number     Number       Type             X           Y           Z
 ---------------------------------------------------------------------
      1          8           0       -0.564282   -0.573389   -2.527290
      2          8           0       -3.559032   -1.843467   -2.145618
      3          8           0       -0.780634    0.549622    1.559678
      4          8           0       -2.352054   -2.187566    0.721791
      5          8           0       -2.787945    1.065148   -0.801006
      6          8           0       -0.743852    3.066470    3.696188
      7          8           0       -2.298610    3.527736    1.007140
      8          8           0        1.900072   -0.303970   -0.164006
      9          8           0        2.287796   -2.178609   -2.793880
     10          8           0        0.017154   -3.564946   -1.130639
     11          8           0        0.672636   -2.500629    1.909540
     12          8           0        3.708764    2.344338   -0.263127
     13          8           0        2.319057    0.886153   -3.216717
     14          8           0        0.338910    2.593537   -0.753703
     15          8           0        2.572094    3.995314   -2.728268
     16          8           0        1.887855    2.390519    2.224219
     17          1           0        1.534061    3.001100    2.879735
     18          1           0       -0.080858   -1.335857   -2.192111
     19          1           0        0.119062   -0.063496   -2.973049
     20          1           0       -3.976867   -2.377445   -2.823766
     21          1           0       -2.661798   -1.718761   -2.474039
     22          1           0       -1.538516   -0.014361    1.370546
     23          1           0       -0.951282    1.322831    1.010301
     24          1           0       -3.196693   -2.026671    0.291598
     25          1           0       -1.889702   -2.743454    0.085772
     26          1           0       -3.363079    0.372300   -1.138435
     27          1           0       -1.995432    0.973197   -1.341287
     28          1           0       -1.142793    2.220454    3.479019
     29          1           0       -1.267910    3.692487    3.186715
     30          1           0       -3.012998    2.988911    0.653722
     31          1           0       -1.686213    3.587875    0.268187
     32          1           0        1.034150    0.118481   -0.148631
     33          1           0        1.855278   -0.912350    0.581306
     34          1           0        2.604370   -1.650842   -2.054605
     35          1           0        2.444322   -1.605606   -3.550011
     36          1           0        0.548169   -3.517187   -0.329719
     37          1           0        0.670232   -3.709525   -1.823086
     38          1           0       -0.172069   -2.038118    1.860625
     39          1           0        0.643130   -2.928864    2.767014
     40          1           0        3.612301    1.406260   -0.070951
     41          1           0        3.619790    2.747259    0.606910
     42          1           0        2.549622    1.076628   -2.301441
     43          1           0        2.417550    1.739660   -3.649251
     44          1           0        0.667371    2.957257   -1.581703
     45          1           0        1.077078    2.721840   -0.148154
     46          1           0        3.260415    3.807675   -2.080215
     47          1           0        2.756504    4.895549   -3.003656
     48          1           0        1.316135    1.622226    2.321722
 ---------------------------------------------------------------------

 SCF Done:  E(RHF) =  -1216.36186771     A.U. after   11 cycles

 Alpha  occ. eigenvalues --  -20.58627 -20.57703 -20.57468 -20.56858 -20.56551
 Alpha  occ. eigenvalues --  -20.56420 -20.56251 -20.55942 -20.55600 -20.55495
 Alpha  occ. eigenvalues --  -20.55357 -20.55276 -20.55255 -20.54964 -20.54632
 Alpha  occ. eigenvalues --  -20.53791  -1.36526  -1.35548  -1.35386  -1.34811
 Alpha  occ. eigenvalues --   -1.34500  -1.34131  -1.34000  -1.33886  -1.33520
 Alpha  occ. eigenvalues --   -1.33330  -1.33242  -1.33109  -1.32985  -1.32724
 Alpha  occ. eigenvalues --   -1.32452  -1.31647  -0.72851  -0.72151  -0.71799
 Alpha  occ. eigenvalues --   -0.71332  -0.70858  -0.70354  -0.70282  -0.69935
 Alpha  occ. eigenvalues --   -0.69679  -0.69501  -0.69275  -0.69158  -0.68890
 Alpha  occ. eigenvalues --   -0.68727  -0.68562  -0.67893  -0.60915  -0.60009
 Alpha  occ. eigenvalues --   -0.59645  -0.59422  -0.58962  -0.58840  -0.58156
 Alpha  occ. eigenvalues --   -0.58119  -0.57883  -0.57547  -0.57052  -0.56643
 Alpha  occ. eigenvalues --   -0.56388  -0.55884  -0.55562  -0.54200  -0.52260
 Alpha  occ. eigenvalues --   -0.51335  -0.51107  -0.50921  -0.50712  -0.50159
 Alpha  occ. eigenvalues --   -0.49921  -0.49702  -0.49589  -0.49195  -0.49036
 Alpha  occ. eigenvalues --   -0.48943  -0.48731  -0.48469  -0.48089  -0.47255
 Alpha virt. eigenvalues --    0.14834   0.17872   0.19897   0.20310   0.21813
 Alpha virt. eigenvalues --    0.23291   0.24819   0.26064   0.26573   0.27116
 Alpha virt. eigenvalues --    0.27756   0.28558   0.29352   0.31048   0.31681

 Mulliken atomic charges:
              1
     1  O   -0.952867
     2  O   -0.913358
     3  O   -0.959433
     4  O   -0.934012
     5  O   -0.942856
     6  O   -0.921632
     7  O   -0.925098
     8  O   -0.949950
     9  O   -0.924636
    10  O   -0.925912
    11  O   -0.912096
    12  O   -0.936272
    13  O   -0.928854
    14  O   -0.938216
    15  O   -0.911106
    16  O   -0.936298
    17  H    0.469034
    18  H    0.473024
    19  H    0.467059
    20  H    0.443779
    21  H    0.475030
    22  H    0.474837
    23  H    0.481640
    24  H    0.463546
    25  H    0.471573
    26  H    0.461159
    27  H    0.472091
    28  H    0.450027
    29  H    0.464781
    30  H    0.464583
    31  H    0.459745
    32  H    0.475457
    33  H    0.473147
    34  H    0.463824
    35  H    0.459331
    36  H    0.459989
    37  H    0.469816
    38  H    0.480447
    39  H    0.446721
    40  H    0.468909
    41  H    0.471374
    42  H    0.467124
    43  H    0.465403
    44  H    0.464590
    45  H    0.467550
    46  H    0.474269
    47  H    0.445339
    48  H    0.467398
 Sum of Mulliken atomic charges =   0.00000

 Dipole moment (field-independent basis, Debye):
    X=              1.2935    Y=             -0.0117    Z=             -3.1014  Tot=              3.3604
 Quadrupole moment (field-independent basis, Debye-Ang):
   XX=            -92.4140   YY=            -88.2150   ZZ=            -95.8073
   XY=             17.7992   XZ=              4.5644   YZ=            -18.9937

 Normal termination of Gaussian 09 at Fri Oct 14 13:08:58 2011.
