 Gaussian 09, Revision A.02,
 Gaussian 09:  EM64M-G09RevA.02 11-Jun-2009

 ----------------------------------------
 #hf/6-31g geom=connectivity nosymm polar
 ----------------------------------------

 ----------------------------------------------------------------
 Water16 modeled by HyperChem and optimized by amber94 force feld
 ----------------------------------------------------------------
 Symbolic Z-matrix:
 Charge =  0 Multiplicity = 1

                          Input orientation:
 ---------------------------------------------------------------------
 Center     Atomic      Atomic             Coordinates (Angstroms)
 Number     Number       Type             X           Y           Z
 ---------------------------------------------------------------------
      1          8           0       -0.564282   -0.573389   -2.527290
      2          8           0       -3.559032   -1.843467   -2.145618
      3          8           0       -0.780634    0.549622    1.559678
      4          8           0       -2.352054   -2.187566    0.721791
      5          8           0       -2.787945    1.065148   -0.801006
      6          8           0       -0.743852    3.066470    3.696188
      7          8           0       -2.298610    3.527736    1.007140
      8          8           0        1.900072   -0.303970   -0.164006
      9          8           0        2.287796   -2.178609   -2.793880
     10          8           0        0.017154   -3.564946   -1.130639
     11          8           0        0.672636   -2.500629    1.909540
     12          8           0        3.708764    2.344338   -0.263127
     13          8           0        2.319057    0.886153   -3.216717
     14          8           0        0.338910    2.593537   -0.753703
     15          8           0        2.572094    3.995314   -2.728268
     16          8           0        1.887855    2.390519    2.224219
     17          1           0        1.534061    3.001100    2.879735
     18          1           0       -0.080858   -1.335857   -2.192111
     19          1           0        0.119062   -0.063496   -2.973049
     20          1           0       -3.976867   -2.377445   -2.823766
     21          1           0       -2.661798   -1.718761   -2.474039
     22          1           0       -1.538516   -0.014361    1.370546
     23          1           0       -0.951282    1.322831    1.010301
     24          1           0       -3.196693   -2.026671    0.291598
     25          1           0       -1.889702   -2.743454    0.085772
     26          1           0       -3.363079    0.372300   -1.138435
     27          1           0       -1.995432    0.973197   -1.341287
     28          1           0       -1.142793    2.220454    3.479019
     29          1           0       -1.267910    3.692487    3.186715
     30          1           0       -3.012998    2.988911    0.653722
     31          1           0       -1.686213    3.587875    0.268187
     32          1           0        1.034150    0.118481   -0.148631
     33          1           0        1.855278   -0.912350    0.581306
     34          1           0        2.604370   -1.650842   -2.054605
     35          1           0        2.444322   -1.605606   -3.550011
     36          1           0        0.548169   -3.517187   -0.329719
     37          1           0        0.670232   -3.709525   -1.823086
     38          1           0       -0.172069   -2.038118    1.860625
     39          1           0        0.643130   -2.928864    2.767014
     40          1           0        3.612301    1.406260   -0.070951
     41          1           0        3.619790    2.747259    0.606910
     42          1           0        2.549622    1.076628   -2.301441
     43          1           0        2.417550    1.739660   -3.649251
     44          1           0        0.667371    2.957257   -1.581703
     45          1           0        1.077078    2.721840   -0.148154
     46          1           0        3.260415    3.807675   -2.080215
     47          1           0        2.756504    4.895549   -3.003656
     48          1           0        1.316135    1.622226    2.321722
 ---------------------------------------------------------------------

 SCF Done:  E(RHF) =  -1215.98766639     A.U. after   11 cycles

 Alpha  occ. eigenvalues --  -20.58852 -20.57588 -20.57558 -20.56868 -20.56476
 Alpha  occ. eigenvalues --  -20.56396 -20.56354 -20.55685 -20.55407 -20.55357
 Alpha  occ. eigenvalues --  -20.55356 -20.55341 -20.55183 -20.54892 -20.54371
 Alpha  occ. eigenvalues --  -20.53511  -1.38119  -1.36877  -1.36758  -1.36147
 Alpha  occ. eigenvalues --   -1.35787  -1.35441  -1.35391  -1.35057  -1.34745
 Alpha  occ. eigenvalues --   -1.34607  -1.34438  -1.34407  -1.34258  -1.33986
 Alpha  occ. eigenvalues --   -1.33584  -1.32746  -0.73382  -0.72346  -0.72230
 Alpha  occ. eigenvalues --   -0.71612  -0.71218  -0.70493  -0.70462  -0.70275
 Alpha  occ. eigenvalues --   -0.69915  -0.69760  -0.69535  -0.69383  -0.69078
 Alpha  occ. eigenvalues --   -0.68850  -0.68754  -0.67931  -0.60327  -0.59229
 Alpha  occ. eigenvalues --   -0.58914  -0.58614  -0.58255  -0.58123  -0.57472
 Alpha  occ. eigenvalues --   -0.57369  -0.57109  -0.56793  -0.56295  -0.55785
 Alpha  occ. eigenvalues --   -0.55597  -0.55070  -0.54731  -0.53271  -0.52882
 Alpha  occ. eigenvalues --   -0.51675  -0.51564  -0.51341  -0.51148  -0.50509
 Alpha  occ. eigenvalues --   -0.50313  -0.50071  -0.49941  -0.49550  -0.49433
 Alpha  occ. eigenvalues --   -0.49281  -0.49090  -0.48873  -0.48345  -0.47438
 Alpha virt. eigenvalues --    0.14274   0.17282   0.19374   0.19852   0.21231
 Alpha virt. eigenvalues --    0.22896   0.24428   0.25712   0.26231   0.26710
 Alpha virt. eigenvalues --    0.27437   0.28102   0.29053   0.30786   0.31358

 Mulliken atomic charges:
              1
     1  O   -0.889687
     2  O   -0.849136
     3  O   -0.897731
     4  O   -0.873010
     5  O   -0.884178
     6  O   -0.857864
     7  O   -0.863588
     8  O   -0.888563
     9  O   -0.863077
    10  O   -0.863889
    11  O   -0.848075
    12  O   -0.877382
    13  O   -0.868575
    14  O   -0.874208
    15  O   -0.848919
    16  O   -0.878168
    17  H    0.440883
    18  H    0.440264
    19  H    0.436988
    20  H    0.409518
    21  H    0.444850
    22  H    0.445853
    23  H    0.449021
    24  H    0.433286
    25  H    0.440771
    26  H    0.432144
    27  H    0.442780
    28  H    0.415394
    29  H    0.435555
    30  H    0.435224
    31  H    0.428122
    32  H    0.441532
    33  H    0.445742
    34  H    0.432627
    35  H    0.429011
    36  H    0.428234
    37  H    0.440086
    38  H    0.450495
    39  H    0.411739
    40  H    0.439585
    41  H    0.442878
    42  H    0.435807
    43  H    0.435930
    44  H    0.434004
    45  H    0.434239
    46  H    0.445387
    47  H    0.411347
    48  H    0.436756
 Sum of Mulliken atomic charges =   0.00000

 Dipole moment (field-independent basis, Debye):
    X=              1.4945    Y=              0.0509    Z=             -3.6656  Tot=              3.9589
 Quadrupole moment (field-independent basis, Debye-Ang):
   XX=            -93.3745   YY=            -88.7499   ZZ=            -97.9443
   XY=             20.1058   XZ=              5.1852   YZ=            -21.7028

  Exact polarizability:  72.129   6.251  73.878   0.182  -1.915  75.868
 Approx polarizability:  53.440   3.896  54.267   0.495  -1.680  56.088

 Normal termination of Gaussian 09 at Tue Jul 20 13:49:21 2010.
