 Gaussian 09, Revision A.02,
 Gaussian 09:  EM64M-G09RevA.02 11-Jun-2009

 -------------------------------
 #HF/6-31g* scf=(conver=5) nofmm
 -------------------------------

 ----
 test
 ----
 Symbolic Z-matrix:
 Charge =  0 Multiplicity = 1

                         Standard orientation:
 ---------------------------------------------------------------------
 Center     Atomic      Atomic             Coordinates (Angstroms)
 Number     Number       Type             X           Y           Z
 ---------------------------------------------------------------------
      1          1           0      -12.819531   -1.067473    0.544740
      2          6           0      -12.158037   -0.216118    0.703327
      3          1           0      -11.934084   -0.122434    1.765539
      4          1           0      -12.645823    0.693376    0.353493
      5          6           0      -10.856716   -0.387962   -0.051963
      6          8           0      -10.646990   -1.395792   -0.740116
      7          7           0       -9.827402    0.658046    0.032922
      8          1           0       -9.751545    1.557888    0.484208
      9          6           0       -8.693678    0.180686   -0.754265
     10          1           0       -8.779461   -0.897536   -0.888636
     11          1           0       -8.702064    0.670077   -1.728352
     12          6           0       -7.387744    0.487242   -0.062409
     13          8           0       -7.159766    1.587684    0.446151
     14          7           0       -6.356647   -0.557986    0.007945
     15          1           0       -6.277407   -1.513588   -0.310735
     16          6           0       -5.227734    0.028273    0.725175
     17          1           0       -5.314998    1.114783    0.704820
     18          1           0       -5.240883   -0.317239    1.758366
     19          6           0       -3.918360   -0.370823    0.090704
     20          8           0       -3.685921   -1.532045   -0.254854
     21          7           0       -2.887275    0.655098   -0.121845
     22          1           0       -2.811006    1.645892    0.058870
     23          6           0       -1.754276   -0.024884   -0.742492
     24          1           0       -1.840097   -1.097621   -0.568124
     25          1           0       -1.762413    0.170478   -1.814565
     26          6           0       -0.448262    0.463617   -0.163640
     27          8           0       -0.218964    1.662905    0.013992
     28          7           0        0.582200   -0.520209    0.198600
     29          1           0        0.660382   -1.526188    0.161952
     30          6           0        1.711735    0.243009    0.722173
     31          1           0        1.625145    1.279357    0.396490
     32          1           0        1.697832    0.202531    1.811738
     33          6           0        3.021105   -0.319506    0.226394
     34          8           0        3.252809   -1.531746    0.221259
     35          7           0        4.052408    0.604874   -0.267196
     36          1           0        4.128959    1.606154   -0.374272
     37          6           0        5.185478   -0.223957   -0.670897
     38          1           0        5.098070   -1.204023   -0.201261
     39          1           0        5.177863   -0.338607   -1.754252
     40          6           0        6.491766    0.406760   -0.252858
     41          8           0        6.722279    1.607130   -0.419538
     42          7           0        7.521263   -0.436177    0.372363
     43          1           0        7.598823   -1.412398    0.621226
     44          6           0        8.651270    0.443724    0.659830
     45          1           0        8.566027    1.346532    0.054770
     46          1           0        8.637766    0.711666    1.716196
     47          6           0        9.960682   -0.237356    0.343154
     48          8           0       10.191180   -1.401195    0.680786
     49          7           0       10.992595    0.509570   -0.390351
     50          1           0       11.062080    1.442000   -0.772279
     51          6           0       12.126098   -0.386016   -0.549149
     52          1           0       11.898168   -1.347113   -0.086900
     53          1           0       12.328229   -0.532930   -1.610441
     54          1           0       13.003009    0.048242   -0.069588
 ---------------------------------------------------------------------

 SCF Done:  E(RHF) =  -1487.65844401     A.U. after   10 cycles

 The electronic state is 1-A.
 Alpha  occ. eigenvalues --  -20.55667 -20.55605 -20.55542 -20.55382 -20.55224
 Alpha  occ. eigenvalues --  -20.55086 -20.54009 -15.60305 -15.60250 -15.60165
 Alpha  occ. eigenvalues --  -15.60112 -15.60002 -15.59595 -15.58346 -11.38661
 Alpha  occ. eigenvalues --  -11.38534 -11.38485 -11.38427 -11.38279 -11.37974
 Alpha  occ. eigenvalues --  -11.36955 -11.27593 -11.27585 -11.27527 -11.27422
 Alpha  occ. eigenvalues --  -11.27194 -11.26633 -11.25203 -11.23196  -1.40321
 Alpha  occ. eigenvalues --   -1.40045  -1.39751  -1.39480  -1.39179  -1.38924
 Alpha  occ. eigenvalues --   -1.38224  -1.21984  -1.21835  -1.21665  -1.21510
 Alpha  occ. eigenvalues --   -1.21369  -1.20962  -1.19515  -1.03719  -1.02551
 Alpha  occ. eigenvalues --   -1.01065  -0.99128  -0.96883  -0.94580  -0.92629
 Alpha  occ. eigenvalues --   -0.89183  -0.80713  -0.80624  -0.80438  -0.80259
 Alpha  occ. eigenvalues --   -0.80098  -0.79779  -0.78718  -0.75651  -0.73616
 Alpha  occ. eigenvalues --   -0.71354  -0.69376  -0.68158  -0.68107  -0.67908
 Alpha  occ. eigenvalues --   -0.67317  -0.67101  -0.66201  -0.65476  -0.65285
 Alpha  occ. eigenvalues --   -0.64776  -0.64179  -0.62964  -0.62278  -0.61571
 Alpha  occ. eigenvalues --   -0.61223  -0.60412  -0.59643  -0.59096  -0.58858
 Alpha  occ. eigenvalues --   -0.58532  -0.58216  -0.58080  -0.57925  -0.57583
 Alpha  occ. eigenvalues --   -0.57366  -0.56694  -0.56640  -0.54426  -0.53138
 Alpha  occ. eigenvalues --   -0.52239  -0.51608  -0.51017  -0.50762  -0.50581
 Alpha  occ. eigenvalues --   -0.49924  -0.46226  -0.45702  -0.44982  -0.44087
 Alpha  occ. eigenvalues --   -0.43219  -0.42636  -0.42130  -0.40493  -0.40192
 Alpha  occ. eigenvalues --   -0.39846  -0.39533  -0.39322  -0.38972  -0.37783
 Alpha virt. eigenvalues --    0.15261   0.15602   0.16050   0.16589   0.17154
 Alpha virt. eigenvalues --    0.17538   0.18049   0.22739   0.22764   0.23377
 Alpha virt. eigenvalues --    0.23579   0.23768   0.23962   0.24300   0.26107

 Mulliken atomic charges:
              1
     1  H    0.222920
     2  C   -0.564708
     3  H    0.197259
     4  H    0.196306
     5  C    0.760473
     6  O   -0.606342
     7  N   -0.848185
     8  H    0.421547
     9  C   -0.193444
    10  H    0.268651
    11  H    0.204584
    12  C    0.775024
    13  O   -0.626185
    14  N   -0.854908
    15  H    0.426577
    16  C   -0.197367
    17  H    0.269242
    18  H    0.205652
    19  C    0.775406
    20  O   -0.624399
    21  N   -0.855182
    22  H    0.425618
    23  C   -0.197108
    24  H    0.269887
    25  H    0.205968
    26  C    0.775097
    27  O   -0.625192
    28  N   -0.854793
    29  H    0.425977
    30  C   -0.197394
    31  H    0.269430
    32  H    0.205607
    33  C    0.775360
    34  O   -0.624994
    35  N   -0.855142
    36  H    0.425257
    37  C   -0.197505
    38  H    0.270088
    39  H    0.204961
    40  C    0.774913
    41  O   -0.627284
    42  N   -0.854195
    43  H    0.425734
    44  C   -0.196543
    45  H    0.264391
    46  H    0.201364
    47  C    0.768348
    48  O   -0.627595
    49  N   -0.839531
    50  H    0.398982
    51  C   -0.314536
    52  H    0.266657
    53  H    0.153115
    54  H    0.152137
 Sum of Mulliken atomic charges =   0.00000

 Dipole moment (field-independent basis, Debye):
    X=             -3.5907    Y=              2.9015    Z=              0.4915  Tot=              4.6426
 Quadrupole moment (field-independent basis, Debye-Ang):
   XX=           -138.7110   YY=           -185.8765   ZZ=           -167.0595
   XY=              1.8706   XZ=            -23.2243   YZ=             -1.3980

 Normal termination of Gaussian 09 at Wed Nov  3 15:06:25 2010.
